     864
 i =        0, time =        0.000, E =      -139.0638811676
 Li         6.0137143000        0.0037027900        8.4455790000
 Li         6.0137143000        0.0037027900       16.9234800000
 Li         6.0137143000        0.0037027900       25.4013790000
 Li         6.0137143000        9.0499030000        8.4455790000
 Li         6.0137143000        9.0499030000       16.9234800000
 Li         6.0137143000        9.0499030000       25.4013790000
 Li         6.0137143000       18.0961040000        8.4455790000
 Li         6.0137143000       18.0961040000       16.9234800000
 Li         6.0137143000       18.0961040000       25.4013790000
 Li        14.6572140000        0.0037027900        8.4455790000
 Li        14.6572140000        0.0037027900       16.9234800000
 Li        14.6572140000        0.0037027900       25.4013790000
 Li        14.6572140000        9.0499030000        8.4455790000
 Li        14.6572140000        9.0499030000       16.9234800000
 Li        14.6572140000        9.0499030000       25.4013790000
 Li        14.6572140000       18.0961040000        8.4455790000
 Li        14.6572140000       18.0961040000       16.9234800000
 Li        14.6572140000       18.0961040000       25.4013790000
 Li        23.3007140000        0.0037027900        8.4455790000
 Li        23.3007140000        0.0037027900       16.9234800000
 Li        23.3007140000        0.0037027900       25.4013790000
 Li        23.3007140000        9.0499030000        8.4455790000
 Li        23.3007140000        9.0499030000       16.9234800000
 Li        23.3007140000        9.0499030000       25.4013790000
 Li        23.3007140000       18.0961040000        8.4455790000
 Li        23.3007140000       18.0961040000       16.9234800000
 Li        23.3007140000       18.0961040000       25.4013790000
 Li         2.4836838000        2.5447190000        4.6931095000
 Li         2.4836838000        2.5447190000       13.1710100000
 Li         2.4836838000        2.5447190000       21.6489100000
 Li         2.4836838000       11.5909190000        4.6931095000
 Li         2.4836838000       11.5909190000       13.1710100000
 Li         2.4836838000       11.5909190000       21.6489100000
 Li         2.4836838000       20.6371200000        4.6931095000
 Li         2.4836838000       20.6371200000       13.1710100000
 Li         2.4836838000       20.6371200000       21.6489100000
 Li        11.1271840000        2.5447190000        4.6931095000
 Li        11.1271840000        2.5447190000       13.1710100000
 Li        11.1271840000        2.5447190000       21.6489100000
 Li        11.1271840000       11.5909190000        4.6931095000
 Li        11.1271840000       11.5909190000       13.1710100000
 Li        11.1271840000       11.5909190000       21.6489100000
 Li        11.1271840000       20.6371200000        4.6931095000
 Li        11.1271840000       20.6371200000       13.1710100000
 Li        11.1271840000       20.6371200000       21.6489100000
 Li        19.7706830000        2.5447190000        4.6931095000
 Li        19.7706830000        2.5447190000       13.1710100000
 Li        19.7706830000        2.5447190000       21.6489100000
 Li        19.7706830000       11.5909190000        4.6931095000
 Li        19.7706830000       11.5909190000       13.1710100000
 Li        19.7706830000       11.5909190000       21.6489100000
 Li        19.7706830000       20.6371200000        4.6931095000
 Li        19.7706830000       20.6371200000       13.1710100000
 Li        19.7706830000       20.6371200000       21.6489100000
 Li         1.8743638000        7.7974353000        8.1074610000
 Li         1.8743638000        7.7974353000       16.5853610000
 Li         1.8743638000        7.7974353000       25.0632610000
 Li         1.8743638000       16.8436360000        8.1074610000
 Li         1.8743638000       16.8436360000       16.5853610000
 Li         1.8743638000       16.8436360000       25.0632610000
 Li         1.8743638000       25.8898350000        8.1074610000
 Li         1.8743638000       25.8898350000       16.5853610000
 Li         1.8743638000       25.8898350000       25.0632610000
 Li        10.5178640000        7.7974353000        8.1074610000
 Li        10.5178640000        7.7974353000       16.5853610000
 Li        10.5178640000        7.7974353000       25.0632610000
 Li        10.5178640000       16.8436360000        8.1074610000
 Li        10.5178640000       16.8436360000       16.5853610000
 Li        10.5178640000       16.8436360000       25.0632610000
 Li        10.5178640000       25.8898350000        8.1074610000
 Li        10.5178640000       25.8898350000       16.5853610000
 Li        10.5178640000       25.8898350000       25.0632610000
 Li        19.1613640000        7.7974353000        8.1074610000
 Li        19.1613640000        7.7974353000       16.5853610000
 Li        19.1613640000        7.7974353000       25.0632610000
 Li        19.1613640000       16.8436360000        8.1074610000
 Li        19.1613640000       16.8436360000       16.5853610000
 Li        19.1613640000       16.8436360000       25.0632610000
 Li        19.1613640000       25.8898350000        8.1074610000
 Li        19.1613640000       25.8898350000       16.5853610000
 Li        19.1613640000       25.8898350000       25.0632610000
 Li         1.6875044000        4.5124590000        8.4473480000
 Li         1.6875044000        4.5124590000       16.9252470000
 Li         1.6875044000        4.5124590000       25.4031490000
 Li         1.6875044000       13.5586590000        8.4473480000
 Li         1.6875044000       13.5586590000       16.9252470000
 Li         1.6875044000       13.5586590000       25.4031490000
 Li         1.6875044000       22.6048580000        8.4473480000
 Li         1.6875044000       22.6048580000       16.9252470000
 Li         1.6875044000       22.6048580000       25.4031490000
 Li        10.3310040000        4.5124590000        8.4473480000
 Li        10.3310040000        4.5124590000       16.9252470000
 Li        10.3310040000        4.5124590000       25.4031490000
 Li        10.3310040000       13.5586590000        8.4473480000
 Li        10.3310040000       13.5586590000       16.9252470000
 Li        10.3310040000       13.5586590000       25.4031490000
 Li        10.3310040000       22.6048580000        8.4473480000
 Li        10.3310040000       22.6048580000       16.9252470000
 Li        10.3310040000       22.6048580000       25.4031490000
 Li        18.9745040000        4.5124590000        8.4473480000
 Li        18.9745040000        4.5124590000       16.9252470000
 Li        18.9745040000        4.5124590000       25.4031490000
 Li        18.9745040000       13.5586590000        8.4473480000
 Li        18.9745040000       13.5586590000       16.9252470000
 Li        18.9745040000       13.5586590000       25.4031490000
 Li        18.9745040000       22.6048580000        8.4473480000
 Li        18.9745040000       22.6048580000       16.9252470000
 Li        18.9745040000       22.6048580000       25.4031490000
 Li         2.6218154000        5.4456077000        3.8584769000
 Li         2.6218154000        5.4456077000       12.3363770000
 Li         2.6218154000        5.4456077000       20.8142780000
 Li         2.6218154000       14.4918080000        3.8584769000
 Li         2.6218154000       14.4918080000       12.3363770000
 Li         2.6218154000       14.4918080000       20.8142780000
 Li         2.6218154000       23.5380080000        3.8584769000
 Li         2.6218154000       23.5380080000       12.3363770000
 Li         2.6218154000       23.5380080000       20.8142780000
 Li        11.2653150000        5.4456077000        3.8584769000
 Li        11.2653150000        5.4456077000       12.3363770000
 Li        11.2653150000        5.4456077000       20.8142780000
 Li        11.2653150000       14.4918080000        3.8584769000
 Li        11.2653150000       14.4918080000       12.3363770000
 Li        11.2653150000       14.4918080000       20.8142780000
 Li        11.2653150000       23.5380080000        3.8584769000
 Li        11.2653150000       23.5380080000       12.3363770000
 Li        11.2653150000       23.5380080000       20.8142780000
 Li        19.9088150000        5.4456077000        3.8584769000
 Li        19.9088150000        5.4456077000       12.3363770000
 Li        19.9088150000        5.4456077000       20.8142780000
 Li        19.9088150000       14.4918080000        3.8584769000
 Li        19.9088150000       14.4918080000       12.3363770000
 Li        19.9088150000       14.4918080000       20.8142780000
 Li        19.9088150000       23.5380080000        3.8584769000
 Li        19.9088150000       23.5380080000       12.3363770000
 Li        19.9088150000       23.5380080000       20.8142780000
 Li         6.2106970000        3.3043530000        8.1305350000
 Li         6.2106970000        3.3043530000       16.6084350000
 Li         6.2106970000        3.3043530000       25.0863340000
 Li         6.2106970000       12.3505530000        8.1305350000
 Li         6.2106970000       12.3505530000       16.6084350000
 Li         6.2106970000       12.3505530000       25.0863340000
 Li         6.2106970000       21.3967530000        8.1305350000
 Li         6.2106970000       21.3967530000       16.6084350000
 Li         6.2106970000       21.3967530000       25.0863340000
 Li        14.8541970000        3.3043530000        8.1305350000
 Li        14.8541970000        3.3043530000       16.6084350000
 Li        14.8541970000        3.3043530000       25.0863340000
 Li        14.8541970000       12.3505530000        8.1305350000
 Li        14.8541970000       12.3505530000       16.6084350000
 Li        14.8541970000       12.3505530000       25.0863340000
 Li        14.8541970000       21.3967530000        8.1305350000
 Li        14.8541970000       21.3967530000       16.6084350000
 Li        14.8541970000       21.3967530000       25.0863340000
 Li        23.4976980000        3.3043530000        8.1305350000
 Li        23.4976980000        3.3043530000       16.6084350000
 Li        23.4976980000        3.3043530000       25.0863340000
 Li        23.4976980000       12.3505530000        8.1305350000
 Li        23.4976980000       12.3505530000       16.6084350000
 Li        23.4976980000       12.3505530000       25.0863340000
 Li        23.4976980000       21.3967530000        8.1305350000
 Li        23.4976980000       21.3967530000       16.6084350000
 Li        23.4976980000       21.3967530000       25.0863340000
 Li         2.0751133000        8.2225880000        4.3600183000
 Li         2.0751133000        8.2225880000       12.8379180000
 Li         2.0751133000        8.2225880000       21.3158190000
 Li         2.0751133000       17.2687870000        4.3600183000
 Li         2.0751133000       17.2687870000       12.8379180000
 Li         2.0751133000       17.2687870000       21.3158190000
 Li         2.0751133000       26.3149870000        4.3600183000
 Li         2.0751133000       26.3149870000       12.8379180000
 Li         2.0751133000       26.3149870000       21.3158190000
 Li        10.7186140000        8.2225880000        4.3600183000
 Li        10.7186140000        8.2225880000       12.8379180000
 Li        10.7186140000        8.2225880000       21.3158190000
 Li        10.7186140000       17.2687870000        4.3600183000
 Li        10.7186140000       17.2687870000       12.8379180000
 Li        10.7186140000       17.2687870000       21.3158190000
 Li        10.7186140000       26.3149870000        4.3600183000
 Li        10.7186140000       26.3149870000       12.8379180000
 Li        10.7186140000       26.3149870000       21.3158190000
 Li        19.3621140000        8.2225880000        4.3600183000
 Li        19.3621140000        8.2225880000       12.8379180000
 Li        19.3621140000        8.2225880000       21.3158190000
 Li        19.3621140000       17.2687870000        4.3600183000
 Li        19.3621140000       17.2687870000       12.8379180000
 Li        19.3621140000       17.2687870000       21.3158190000
 Li        19.3621140000       26.3149870000        4.3600183000
 Li        19.3621140000       26.3149870000       12.8379180000
 Li        19.3621140000       26.3149870000       21.3158190000
 Li         6.9293685000        0.9069711600        3.8643020000
 Li         6.9293685000        0.9069711600       12.3422020000
 Li         6.9293685000        0.9069711600       20.8201030000
 Li         6.9293685000        9.9531710000        3.8643020000
 Li         6.9293685000        9.9531710000       12.3422020000
 Li         6.9293685000        9.9531710000       20.8201030000
 Li         6.9293685000       18.9993700000        3.8643020000
 Li         6.9293685000       18.9993700000       12.3422020000
 Li         6.9293685000       18.9993700000       20.8201030000
 Li        15.5728680000        0.9069711600        3.8643020000
 Li        15.5728680000        0.9069711600       12.3422020000
 Li        15.5728680000        0.9069711600       20.8201030000
 Li        15.5728680000        9.9531710000        3.8643020000
 Li        15.5728680000        9.9531710000       12.3422020000
 Li        15.5728680000        9.9531710000       20.8201030000
 Li        15.5728680000       18.9993700000        3.8643020000
 Li        15.5728680000       18.9993700000       12.3422020000
 Li        15.5728680000       18.9993700000       20.8201030000
 Li        24.2163680000        0.9069711600        3.8643020000
 Li        24.2163680000        0.9069711600       12.3422020000
 Li        24.2163680000        0.9069711600       20.8201030000
 Li        24.2163680000        9.9531710000        3.8643020000
 Li        24.2163680000        9.9531710000       12.3422020000
 Li        24.2163680000        9.9531710000       20.8201030000
 Li        24.2163680000       18.9993700000        3.8643020000
 Li        24.2163680000       18.9993700000       12.3422020000
 Li        24.2163680000       18.9993700000       20.8201030000
 Li         1.9250143000        1.6060941000        0.4587002400
 Li         1.9250143000        1.6060941000        8.9366010000
 Li         1.9250143000        1.6060941000       17.4145000000
 Li         1.9250143000       10.6522940000        0.4587002400
 Li         1.9250143000       10.6522940000        8.9366010000
 Li         1.9250143000       10.6522940000       17.4145000000
 Li         1.9250143000       19.6984940000        0.4587002400
 Li         1.9250143000       19.6984940000        8.9366010000
 Li         1.9250143000       19.6984940000       17.4145000000
 Li        10.5685140000        1.6060941000        0.4587002400
 Li        10.5685140000        1.6060941000        8.9366010000
 Li        10.5685140000        1.6060941000       17.4145000000
 Li        10.5685140000       10.6522940000        0.4587002400
 Li        10.5685140000       10.6522940000        8.9366010000
 Li        10.5685140000       10.6522940000       17.4145000000
 Li        10.5685140000       19.6984940000        0.4587002400
 Li        10.5685140000       19.6984940000        8.9366010000
 Li        10.5685140000       19.6984940000       17.4145000000
 Li        19.2120150000        1.6060941000        0.4587002400
 Li        19.2120150000        1.6060941000        8.9366010000
 Li        19.2120150000        1.6060941000       17.4145000000
 Li        19.2120150000       10.6522940000        0.4587002400
 Li        19.2120150000       10.6522940000        8.9366010000
 Li        19.2120150000       10.6522940000       17.4145000000
 Li        19.2120150000       19.6984940000        0.4587002400
 Li        19.2120150000       19.6984940000        8.9366010000
 Li        19.2120150000       19.6984940000       17.4145000000
 Li         6.2246700000        6.1680190000        0.5424442000
 Li         6.2246700000        6.1680190000        9.0203440000
 Li         6.2246700000        6.1680190000       17.4982430000
 Li         6.2246700000       15.2142190000        0.5424442000
 Li         6.2246700000       15.2142190000        9.0203440000
 Li         6.2246700000       15.2142190000       17.4982430000
 Li         6.2246700000       24.2604200000        0.5424442000
 Li         6.2246700000       24.2604200000        9.0203440000
 Li         6.2246700000       24.2604200000       17.4982430000
 Li        14.8681700000        6.1680190000        0.5424442000
 Li        14.8681700000        6.1680190000        9.0203440000
 Li        14.8681700000        6.1680190000       17.4982430000
 Li        14.8681700000       15.2142190000        0.5424442000
 Li        14.8681700000       15.2142190000        9.0203440000
 Li        14.8681700000       15.2142190000       17.4982430000
 Li        14.8681700000       24.2604200000        0.5424442000
 Li        14.8681700000       24.2604200000        9.0203440000
 Li        14.8681700000       24.2604200000       17.4982430000
 Li        23.5116700000        6.1680190000        0.5424442000
 Li        23.5116700000        6.1680190000        9.0203440000
 Li        23.5116700000        6.1680190000       17.4982430000
 Li        23.5116700000       15.2142190000        0.5424442000
 Li        23.5116700000       15.2142190000        9.0203440000
 Li        23.5116700000       15.2142190000       17.4982430000
 Li        23.5116700000       24.2604200000        0.5424442000
 Li        23.5116700000       24.2604200000        9.0203440000
 Li        23.5116700000       24.2604200000       17.4982430000
 Li         6.3743980000        3.6771705000        4.3805475000
 Li         6.3743980000        3.6771705000       12.8584480000
 Li         6.3743980000        3.6771705000       21.3363480000
 Li         6.3743980000       12.7233710000        4.3805475000
 Li         6.3743980000       12.7233710000       12.8584480000
 Li         6.3743980000       12.7233710000       21.3363480000
 Li         6.3743980000       21.7695710000        4.3805475000
 Li         6.3743980000       21.7695710000       12.8584480000
 Li         6.3743980000       21.7695710000       21.3363480000
 Li        15.0178990000        3.6771705000        4.3805475000
 Li        15.0178990000        3.6771705000       12.8584480000
 Li        15.0178990000        3.6771705000       21.3363480000
 Li        15.0178990000       12.7233710000        4.3805475000
 Li        15.0178990000       12.7233710000       12.8584480000
 Li        15.0178990000       12.7233710000       21.3363480000
 Li        15.0178990000       21.7695710000        4.3805475000
 Li        15.0178990000       21.7695710000       12.8584480000
 Li        15.0178990000       21.7695710000       21.3363480000
 Li        23.6613980000        3.6771705000        4.3805475000
 Li        23.6613980000        3.6771705000       12.8584480000
 Li        23.6613980000        3.6771705000       21.3363480000
 Li        23.6613980000       12.7233710000        4.3805475000
 Li        23.6613980000       12.7233710000       12.8584480000
 Li        23.6613980000       12.7233710000       21.3363480000
 Li        23.6613980000       21.7695710000        4.3805475000
 Li        23.6613980000       21.7695710000       12.8584480000
 Li        23.6613980000       21.7695710000       21.3363480000
 Li         6.8204045000        7.0452580000        4.7183027000
 Li         6.8204045000        7.0452580000       13.1962030000
 Li         6.8204045000        7.0452580000       21.6741030000
 Li         6.8204045000       16.0914570000        4.7183027000
 Li         6.8204045000       16.0914570000       13.1962030000
 Li         6.8204045000       16.0914570000       21.6741030000
 Li         6.8204045000       25.1376600000        4.7183027000
 Li         6.8204045000       25.1376600000       13.1962030000
 Li         6.8204045000       25.1376600000       21.6741030000
 Li        15.4639040000        7.0452580000        4.7183027000
 Li        15.4639040000        7.0452580000       13.1962030000
 Li        15.4639040000        7.0452580000       21.6741030000
 Li        15.4639040000       16.0914570000        4.7183027000
 Li        15.4639040000       16.0914570000       13.1962030000
 Li        15.4639040000       16.0914570000       21.6741030000
 Li        15.4639040000       25.1376600000        4.7183027000
 Li        15.4639040000       25.1376600000       13.1962030000
 Li        15.4639040000       25.1376600000       21.6741030000
 Li        24.1074050000        7.0452580000        4.7183027000
 Li        24.1074050000        7.0452580000       13.1962030000
 Li        24.1074050000        7.0452580000       21.6741030000
 Li        24.1074050000       16.0914570000        4.7183027000
 Li        24.1074050000       16.0914570000       13.1962030000
 Li        24.1074050000       16.0914570000       21.6741030000
 Li        24.1074050000       25.1376600000        4.7183027000
 Li        24.1074050000       25.1376600000       13.1962030000
 Li        24.1074050000       25.1376600000       21.6741030000
  S         0.0762310700        6.3014880000        0.3386274300
  P         0.1335603900        7.4293203000        2.0588220000
  S         1.7179714000        8.7286415000        1.9627905000
  S        -1.7625256000        8.2472700000        2.1633267000
  S         0.3812895700        6.3950570000        3.8189075000
  S         0.0762310700        6.3014880000        8.8165270000
  P         0.1335603900        7.4293203000       10.5367220000
  S         1.7179714000        8.7286415000       10.4406910000
  S        -1.7625256000        8.2472700000       10.6412270000
  S         0.3812895700        6.3950570000       12.2968070000
  S         0.3812895700        6.3950570000       20.7747080000
  S         0.0762310700        6.3014880000       17.2944280000
  P         0.1335603900        7.4293203000       19.0146220000
  S         1.7179714000        8.7286415000       18.9185900000
  S        -1.7625256000        8.2472700000       19.1191270000
  S         0.3812895700       15.4412570000        3.8189075000
  S         0.0762310700       15.3476880000        0.3386274300
  P         0.1335603900       16.4755210000        2.0588220000
  S         1.7179714000       17.7748410000        1.9627905000
  S        -1.7625256000       17.2934700000        2.1633267000
  S         0.3812895700       15.4412570000       12.2968070000
  S         0.0762310700       15.3476880000        8.8165270000
  P         0.1335603900       16.4755210000       10.5367220000
  S         1.7179714000       17.7748410000       10.4406910000
  S        -1.7625256000       17.2934700000       10.6412270000
  S         0.3812895700       15.4412570000       20.7747080000
  S         0.0762310700       15.3476880000       17.2944280000
  P         0.1335603900       16.4755210000       19.0146220000
  S         1.7179714000       17.7748410000       18.9185900000
  S        -1.7625256000       17.2934700000       19.1191270000
  S         0.3812895700       24.4874570000        3.8189075000
  S         0.0762310700       24.3938880000        0.3386274300
  P         0.1335603900       25.5217200000        2.0588220000
  S         1.7179714000       26.8210410000        1.9627905000
  S        -1.7625256000       26.3396700000        2.1633267000
  S         0.3812895700       24.4874570000       12.2968070000
  S         0.0762310700       24.3938880000        8.8165270000
  P         0.1335603900       25.5217200000       10.5367220000
  S         1.7179714000       26.8210410000       10.4406910000
  S        -1.7625256000       26.3396700000       10.6412270000
  S         0.3812895700       24.4874570000       20.7747080000
  S         0.0762310700       24.3938880000       17.2944280000
  P         0.1335603900       25.5217200000       19.0146220000
  S         1.7179714000       26.8210410000       18.9185900000
  S        -1.7625256000       26.3396700000       19.1191270000
  S         9.0247900000        6.3950570000        3.8189075000
  S         8.7197310000        6.3014880000        0.3386274300
  P         8.7770605000        7.4293203000        2.0588220000
  S        10.3614710000        8.7286415000        1.9627905000
  S         6.8809740000        8.2472700000        2.1633267000
  S         9.0247900000        6.3950570000       12.2968070000
  S         8.7197310000        6.3014880000        8.8165270000
  P         8.7770605000        7.4293203000       10.5367220000
  S        10.3614710000        8.7286415000       10.4406910000
  S         6.8809740000        8.2472700000       10.6412270000
  S         9.0247900000        6.3950570000       20.7747080000
  S         8.7197310000        6.3014880000       17.2944280000
  P         8.7770605000        7.4293203000       19.0146220000
  S        10.3614710000        8.7286415000       18.9185900000
  S         6.8809740000        8.2472700000       19.1191270000
  S         9.0247900000       15.4412570000        3.8189075000
  S         8.7197310000       15.3476880000        0.3386274300
  P         8.7770605000       16.4755210000        2.0588220000
  S        10.3614710000       17.7748410000        1.9627905000
  S         6.8809740000       17.2934700000        2.1633267000
  S         6.8809740000       17.2934700000       10.6412270000
  S         9.0247900000       15.4412570000       12.2968070000
  S         8.7197310000       15.3476880000        8.8165270000
  P         8.7770605000       16.4755210000       10.5367220000
  S        10.3614710000       17.7748410000       10.4406910000
  S         6.8809740000       17.2934700000       19.1191270000
  S         9.0247900000       15.4412570000       20.7747080000
  S         8.7197310000       15.3476880000       17.2944280000
  P         8.7770605000       16.4755210000       19.0146220000
  S        10.3614710000       17.7748410000       18.9185900000
  S         6.8809740000       26.3396700000        2.1633267000
  S         9.0247900000       24.4874570000        3.8189075000
  S         8.7197310000       24.3938880000        0.3386274300
  P         8.7770605000       25.5217200000        2.0588220000
  S        10.3614710000       26.8210410000        1.9627905000
  S         6.8809740000       26.3396700000       10.6412270000
  S         9.0247900000       24.4874570000       12.2968070000
  S         8.7197310000       24.3938880000        8.8165270000
  P         8.7770605000       25.5217200000       10.5367220000
  S        10.3614710000       26.8210410000       10.4406910000
  S         6.8809740000       26.3396700000       19.1191270000
  S         9.0247900000       24.4874570000       20.7747080000
  S         8.7197310000       24.3938880000       17.2944280000
  P         8.7770605000       25.5217200000       19.0146220000
  S        10.3614710000       26.8210410000       18.9185900000
  S        15.5244730000        8.2472700000        2.1633267000
  S        17.6682900000        6.3950570000        3.8189075000
  S        17.3632320000        6.3014880000        0.3386274300
  P        17.4205600000        7.4293203000        2.0588220000
  S        19.0049700000        8.7286415000        1.9627905000
  S        19.0049700000        8.7286415000       10.4406910000
  S        15.5244730000        8.2472700000       10.6412270000
  S        17.6682900000        6.3950570000       12.2968070000
  S        17.3632320000        6.3014880000        8.8165270000
  P        17.4205600000        7.4293203000       10.5367220000
  S        19.0049700000        8.7286415000       18.9185900000
  S        15.5244730000        8.2472700000       19.1191270000
  S        17.6682900000        6.3950570000       20.7747080000
  S        17.3632320000        6.3014880000       17.2944280000
  P        17.4205600000        7.4293203000       19.0146220000
  S        19.0049700000       17.7748410000        1.9627905000
  S        15.5244730000       17.2934700000        2.1633267000
  S        17.6682900000       15.4412570000        3.8189075000
  S        17.3632320000       15.3476880000        0.3386274300
  P        17.4205600000       16.4755210000        2.0588220000
  S        19.0049700000       17.7748410000       10.4406910000
  S        15.5244730000       17.2934700000       10.6412270000
  S        17.6682900000       15.4412570000       12.2968070000
  S        17.3632320000       15.3476880000        8.8165270000
  P        17.4205600000       16.4755210000       10.5367220000
  S        19.0049700000       17.7748410000       18.9185900000
  S        15.5244730000       17.2934700000       19.1191270000
  S        17.6682900000       15.4412570000       20.7747080000
  S        17.3632320000       15.3476880000       17.2944280000
  P        17.4205600000       16.4755210000       19.0146220000
  S        19.0049700000       26.8210410000        1.9627905000
  S        15.5244730000       26.3396700000        2.1633267000
  S        17.6682900000       24.4874570000        3.8189075000
  S        17.3632320000       24.3938880000        0.3386274300
  P        17.4205600000       25.5217200000        2.0588220000
  S        19.0049700000       26.8210410000       10.4406910000
  S        15.5244730000       26.3396700000       10.6412270000
  S        17.6682900000       24.4874570000       12.2968070000
  S        17.3632320000       24.3938880000        8.8165270000
  P        17.4205600000       25.5217200000       10.5367220000
  S        19.0049700000       26.8210410000       18.9185900000
  S        15.5244730000       26.3396700000       19.1191270000
  S        17.6682900000       24.4874570000       20.7747080000
  S        17.3632320000       24.3938880000       17.2944280000
  P        17.4205600000       25.5217200000       19.0146220000
  S        10.4915780000        0.5382016300        6.3817744000